<?xml version="1.0" encoding="UTF-8"?>

<!-- generated on sam. 10 oct. 2020 13:06:34 CEST by Eclipse SUMO GUI Version 1.4.0
<configuration xmlns:xsi="http://www.w3.org/2001/XMLSchema-instance" xsi:noNamespaceSchemaLocation="http://sumo.dlr.de/xsd/sumoConfiguration.xsd">

    <input>
        <net-file value="Bordeaux-1/map.net.xml"/>
        <route-files value="Bordeaux-1/map.rou.xml"/>
        <additional-files value="Bordeaux-1/map.poly.xml"/>
    </input>

    <output>
        <emission-output value="Bordeaux-1/BordeauxTest/emissionSabin.xml"/>
        <tripinfo-output value="Bordeaux-1/BordeauxTest/sabin.xml"/>
    </output>

    <time>
        <begin value="0"/>
        <end value="1000"/>
        <step-length value="0.5"/>
    </time>

    <report>
        <message-log value="sumo-0.log"/>
        <no-step-log value="true"/>
    </report>

    <traci_server>
        <remote-port value="49251"/>
    </traci_server>

    <random_number>
        <seed value="23423"/>
    </random_number>

    <gui_only>
        <gui-settings-file value="Bordeaux-1/style1.xml"/>
        <quit-on-end value="true"/>
        <start value="true"/>
        <tracker-interval value="0.5"/>
    </gui_only>

</configuration>
-->

<emission-export xmlns:xsi="http://www.w3.org/2001/XMLSchema-instance" xsi:noNamespaceSchemaLocation="http://sumo.dlr.de/xsd/emission_file.xsd">
    <timestep time="0.00">
        <vehicle id="f4.0" eclass="HBEFA3/PC_G_EU4" CO2="2337.01" CO="0.00" HC="0.02" NOx="0.70" PMx="0.01" fuel="1.00" electricity="0.00" noise="64.57" route="route0" type="Car" waiting="0.00" lane="-50316829#8_0" pos="5.10" speed="13.89" angle="284.71" x="2413.98" y="1631.59"/>
    </timestep>
    <timestep time="0.50">
        <vehicle id="f4.0" eclass="HBEFA3/PC_G_EU4" CO2="2337.01" CO="0.00" HC="0.02" NOx="0.70" PMx="0.01" fuel="1.00" electricity="0.00" noise="64.57" route="route0" type="Car" waiting="0.00" lane="-50316829#8_0" pos="12.04" speed="13.89" angle="284.71" x="2407.27" y="1633.35"/>
    </timestep>
    <timestep time="1.00">
        <vehicle id="f4.0" eclass="HBEFA3/PC_G_EU4" CO2="2337.01" CO="0.00" HC="0.02" NOx="0.70" PMx="0.01" fuel="1.00" electricity="0.00" noise="64.57" route="route0" type="Car" waiting="0.00" lane="-50316829#8_0" pos="18.99" speed="13.89" angle="284.71" x="2400.56" y="1635.12"/>
    </timestep>
    <timestep time="1.50">
        <vehicle id="f4.0" eclass="HBEFA3/PC_G_EU4" CO2="2337.01" CO="0.00" HC="0.02" NOx="0.70" PMx="0.01" fuel="1.00" electricity="0.00" noise="64.57" route="route0" type="Car" waiting="0.00" lane="-50316829#8_0" pos="25.94" speed="13.89" angle="284.71" x="2393.85" y="1636.88"/>
        <vehicle id="f4.1" eclass="HBEFA3/PC_G_EU4" CO2="2337.01" CO="0.00" HC="0.02" NOx="0.70" PMx="0.01" fuel="1.00" electricity="0.00" noise="64.57" route="route0" type="Car" waiting="0.00" lane="-50316829#8_0" pos="5.10" speed="13.89" angle="284.71" x="2413.98" y="1631.59"/>
    </timestep>
    <timestep time="2.00">
        <vehicle id="f4.0" eclass="HBEFA3/PC_G_EU4" CO2="2337.01" CO="0.00" HC="0.02" NOx="0.70" PMx="0.01" fuel="1.00" electricity="0.00" noise="64.57" route="route0" type="Car" waiting="0.00" lane="-50316829#8_0" pos="32.88" speed="13.89" angle="284.71" x="2387.14" y="1638.64"/>
        <vehicle id="f4.1" eclass="HBEFA3/PC_G_EU4" CO2="2337.01" CO="0.00" HC="0.02" NOx="0.70" PMx="0.01" fuel="1.00" electricity="0.00" noise="64.57" route="route0" type="Car" waiting="0.00" lane="-50316829#8_0" pos="12.04" speed="13.89" angle="284.71" x="2407.27" y="1633.35"/>
    </timestep>
    <timestep time="2.50">
        <vehicle id="f4.0" eclass="HBEFA3/PC_G_EU4" CO2="2337.01" CO="0.00" HC="0.02" NOx="0.70" PMx="0.01" fuel="1.00" electricity="0.00" noise="64.57" route="route0" type="Car" waiting="0.00" lane="-50316829#8_0" pos="39.83" speed="13.89" angle="284.71" x="2380.43" y="1640.40"/>
        <vehicle id="f4.1" eclass="HBEFA3/PC_G_EU4" CO2="2337.01" CO="0.00" HC="0.02" NOx="0.70" PMx="0.01" fuel="1.00" electricity="0.00" noise="64.57" route="route0" type="Car" waiting="0.00" lane="-50316829#8_0" pos="18.99" speed="13.89" angle="284.71" x="2400.56" y="1635.12"/>
    </timestep>
    <timestep time="3.00">
        <vehicle id="f4.0" eclass="HBEFA3/PC_G_EU4" CO2="2337.01" CO="0.00" HC="0.02" NOx="0.70" PMx="0.01" fuel="1.00" electricity="0.00" noise="64.57" route="route0" type="Car" waiting="0.00" lane="-50316829#8_0" pos="46.77" speed="13.89" angle="284.71" x="2373.73" y="1642.16"/>
        <vehicle id="f4.1" eclass="HBEFA3/PC_G_EU4" CO2="2337.01" CO="0.00" HC="0.02" NOx="0.70" PMx="0.01" fuel="1.00" electricity="0.00" noise="64.57" route="route0" type="Car" waiting="0.00" lane="-50316829#8_0" pos="25.94" speed="13.89" angle="284.71" x="2393.85" y="1636.88"/>
        <vehicle id="f4.2" eclass="HBEFA3/PC_G_EU4" CO2="2337.01" CO="0.00" HC="0.02" NOx="0.70" PMx="0.01" fuel="1.00" electricity="0.00" noise="64.57" route="route0" type="Car" waiting="0.00" lane="-50316829#8_0" pos="5.10" speed="13.89" angle="284.71" x="2413.98" y="1631.59"/>
    </timestep>
    <timestep time="3.50">
        <vehicle id="f4.0" eclass="HBEFA3/PC_G_EU4" CO2="2337.01" CO="0.00" HC="0.02" NOx="0.70" PMx="0.01" fuel="1.00" electricity="0.00" noise="64.57" route="route0" type="Car" waiting="0.00" lane="-50316829#8_0" pos="53.72" speed="13.89" angle="284.71" x="2367.02" y="1643.92"/>
        <vehicle id="f4.1" eclass="HBEFA3/PC_G_EU4" CO2="2337.01" CO="0.00" HC="0.02" NOx="0.70" PMx="0.01" fuel="1.00" electricity="0.00" noise="64.57" route="route0" type="Car" waiting="0.00" lane="-50316829#8_0" pos="32.88" speed="13.89" angle="284.71" x="2387.14" y="1638.64"/>
        <vehicle id="f4.2" eclass="HBEFA3/PC_G_EU4" CO2="2337.01" CO="0.00" HC="0.02" NOx="0.70" PMx="0.01" fuel="1.00" electricity="0.00" noise="64.57" route="route0" type="Car" waiting="0.00" lane="-50316829#8_0" pos="12.04" speed="13.89" angle="284.71" x="2407.27" y="1633.35"/>
    </timestep>
    <timestep time="4.00">
        <vehicle id="f4.0" eclass="HBEFA3/PC_G_EU4" CO2="2337.01" CO="0.00" HC="0.02" NOx="0.70" PMx="0.01" fuel="1.00" electricity="0.00" noise="64.57" route="route0" type="Car" waiting="0.00" lane="-50316829#8_0" pos="60.66" speed="13.89" angle="284.71" x="2360.31" y="1645.68"/>
        <vehicle id="f4.1" eclass="HBEFA3/PC_G_EU4" CO2="2337.01" CO="0.00" HC="0.02" NOx="0.70" PMx="0.01" fuel="1.00" electricity="0.00" noise="64.57" route="route0" type="Car" waiting="0.00" lane="-50316829#8_0" pos="39.83" speed="13.89" angle="284.71" x="2380.43" y="1640.40"/>
        <vehicle id="f4.2" eclass="HBEFA3/PC_G_EU4" CO2="2337.01" CO="0.00" HC="0.02" NOx="0.70" PMx="0.01" fuel="1.00" electricity="0.00" noise="64.57" route="route0" type="Car" waiting="0.00" lane="-50316829#8_0" pos="18.99" speed="13.89" angle="284.71" x="2400.56" y="1635.12"/>
    </timestep>
    <timestep time="4.50">
        <vehicle id="f4.0" eclass="HBEFA3/PC_G_EU4" CO2="2337.01" CO="0.00" HC="0.02" NOx="0.70" PMx="0.01" fuel="1.00" electricity="0.00" noise="64.57" route="route0" type="Car" waiting="0.00" lane="-50316829#8_0" pos="67.61" speed="13.89" angle="288.79" x="2353.72" y="1647.78"/>
        <vehicle id="f4.1" eclass="HBEFA3/PC_G_EU4" CO2="2337.01" CO="0.00" HC="0.02" NOx="0.70" PMx="0.01" fuel="1.00" electricity="0.00" noise="64.57" route="route0" type="Car" waiting="0.00" lane="-50316829#8_0" pos="46.77" speed="13.89" angle="284.71" x="2373.73" y="1642.16"/>
        <vehicle id="f4.2" eclass="HBEFA3/PC_G_EU4" CO2="2337.01" CO="0.00" HC="0.02" NOx="0.70" PMx="0.01" fuel="1.00" electricity="0.00" noise="64.57" route="route0" type="Car" waiting="0.00" lane="-50316829#8_0" pos="25.94" speed="13.89" angle="284.71" x="2393.85" y="1636.88"/>
        <vehicle id="f4.3" eclass="HBEFA3/PC_G_EU4" CO2="2337.01" CO="0.00" HC="0.02" NOx="0.70" PMx="0.01" fuel="1.00" electricity="0.00" noise="64.57" route="route0" type="Car" waiting="0.00" lane="-50316829#8_0" pos="5.10" speed="13.89" angle="284.71" x="2413.98" y="1631.59"/>
    </timestep>
    <timestep time="5.00">
        <vehicle id="f4.0" eclass="HBEFA3/PC_G_EU4" CO2="2337.01" CO="0.00" HC="0.02" NOx="0.70" PMx="0.01" fuel="1.00" electricity="0.00" noise="64.57" route="route0" type="Car" waiting="0.00" lane="-50316829#8_0" pos="74.55" speed="13.89" angle="296.15" x="2347.49" y="1650.83"/>
        <vehicle id="f4.1" eclass="HBEFA3/PC_G_EU4" CO2="2337.01" CO="0.00" HC="0.02" NOx="0.70" PMx="0.01" fuel="1.00" electricity="0.00" noise="64.57" route="route0" type="Car" waiting="0.00" lane="-50316829#8_0" pos="53.72" speed="13.89" angle="284.71" x="2367.02" y="1643.92"/>
        <vehicle id="f4.2" eclass="HBEFA3/PC_G_EU4" CO2="2337.01" CO="0.00" HC="0.02" NOx="0.70" PMx="0.01" fuel="1.00" electricity="0.00" noise="64.57" route="route0" type="Car" waiting="0.00" lane="-50316829#8_0" pos="32.88" speed="13.89" angle="284.71" x="2387.14" y="1638.64"/>
        <vehicle id="f4.3" eclass="HBEFA3/PC_G_EU4" CO2="2337.01" CO="0.00" HC="0.02" NOx="0.70" PMx="0.01" fuel="1.00" electricity="0.00" noise="64.57" route="route0" type="Car" waiting="0.00" lane="-50316829#8_0" pos="12.04" speed="13.89" angle="284.71" x="2407.27" y="1633.35"/>
    </timestep>
    <timestep time="5.50">
        <vehicle id="f4.0" eclass="HBEFA3/PC_G_EU4" CO2="2337.01" CO="0.00" HC="0.02" NOx="0.70" PMx="0.01" fuel="1.00" electricity="0.00" noise="64.57" route="route0" type="Car" waiting="0.00" lane="-50316829#8_0" pos="81.50" speed="13.89" angle="296.15" x="2341.27" y="1653.89"/>
        <vehicle id="f4.1" eclass="HBEFA3/PC_G_EU4" CO2="2337.01" CO="0.00" HC="0.02" NOx="0.70" PMx="0.01" fuel="1.00" electricity="0.00" noise="64.57" route="route0" type="Car" waiting="0.00" lane="-50316829#8_0" pos="60.66" speed="13.89" angle="284.71" x="2360.31" y="1645.68"/>
        <vehicle id="f4.2" eclass="HBEFA3/PC_G_EU4" CO2="2337.01" CO="0.00" HC="0.02" NOx="0.70" PMx="0.01" fuel="1.00" electricity="0.00" noise="64.57" route="route0" type="Car" waiting="0.00" lane="-50316829#8_0" pos="39.83" speed="13.89" angle="284.71" x="2380.43" y="1640.40"/>
        <vehicle id="f4.3" eclass="HBEFA3/PC_G_EU4" CO2="2337.01" CO="0.00" HC="0.02" NOx="0.70" PMx="0.01" fuel="1.00" electricity="0.00" noise="64.57" route="route0" type="Car" waiting="0.00" lane="-50316829#8_0" pos="18.99" speed="13.89" angle="284.71" x="2400.56" y="1635.12"/>
    </timestep>
    <timestep time="6.00">
        <vehicle id="f4.0" eclass="HBEFA3/PC_G_EU4" CO2="2337.01" CO="0.00" HC="0.02" NOx="0.70" PMx="0.01" fuel="1.00" electricity="0.00" noise="64.57" route="route0" type="Car" waiting="0.00" lane="-50316829#8_0" pos="88.44" speed="13.89" angle="296.15" x="2335.04" y="1656.95"/>
        <vehicle id="f4.1" eclass="HBEFA3/PC_G_EU4" CO2="2337.01" CO="0.00" HC="0.02" NOx="0.70" PMx="0.01" fuel="1.00" electricity="0.00" noise="64.57" route="route0" type="Car" waiting="0.00" lane="-50316829#8_0" pos="67.61" speed="13.89" angle="288.79" x="2353.72" y="1647.78"/>
        <vehicle id="f4.2" eclass="HBEFA3/PC_G_EU4" CO2="2337.01" CO="0.00" HC="0.02" NOx="0.70" PMx="0.01" fuel="1.00" electricity="0.00" noise="64.57" route="route0" type="Car" waiting="0.00" lane="-50316829#8_0" pos="46.77" speed="13.89" angle="284.71" x="2373.73" y="1642.16"/>
        <vehicle id="f4.3" eclass="HBEFA3/PC_G_EU4" CO2="2337.01" CO="0.00" HC="0.02" NOx="0.70" PMx="0.01" fuel="1.00" electricity="0.00" noise="64.57" route="route0" type="Car" waiting="0.00" lane="-50316829#8_0" pos="25.94" speed="13.89" angle="284.71" x="2393.85" y="1636.88"/>
        <vehicle id="f4.4" eclass="HBEFA3/PC_G_EU4" CO2="2337.01" CO="0.00" HC="0.02" NOx="0.70" PMx="0.01" fuel="1.00" electricity="0.00" noise="64.57" route="route0" type="Car" waiting="0.00" lane="-50316829#8_0" pos="5.10" speed="13.89" angle="284.71" x="2413.98" y="1631.59"/>
    </timestep>
    <timestep time="6.50">
        <vehicle id="f4.0" eclass="HBEFA3/PC_G_EU4" CO2="2337.01" CO="0.00" HC="0.02" NOx="0.70" PMx="0.01" fuel="1.00" electricity="0.00" noise="64.57" route="route0" type="Car" waiting="0.00" lane="-50316829#8_0" pos="95.38" speed="13.89" angle="296.15" x="2328.81" y="1660.00"/>
        <vehicle id="f4.1" eclass="HBEFA3/PC_G_EU4" CO2="2337.01" CO="0.00" HC="0.02" NOx="0.70" PMx="0.01" fuel="1.00" electricity="0.00" noise="64.57" route="route0" type="Car" waiting="0.00" lane="-50316829#8_0" pos="74.55" speed="13.89" angle="296.15" x="2347.49" y="1650.83"/>
        <vehicle id="f4.2" eclass="HBEFA3/PC_G_EU4" CO2="2337.01" CO="0.00" HC="0.02" NOx="0.70" PMx="0.01" fuel="1.00" electricity="0.00" noise="64.57" route="route0" type="Car" waiting="0.00" lane="-50316829#8_0" pos="53.72" speed="13.89" angle="284.71" x="2367.02" y="1643.92"/>
        <vehicle id="f4.3" eclass="HBEFA3/PC_G_EU4" CO2="2337.01" CO="0.00" HC="0.02" NOx="0.70" PMx="0.01" fuel="1.00" electricity="0.00" noise="64.57" route="route0" type="Car" waiting="0.00" lane="-50316829#8_0" pos="32.88" speed="13.89" angle="284.71" x="2387.14" y="1638.64"/>
        <vehicle id="f4.4" eclass="HBEFA3/PC_G_EU4" CO2="2337.01" CO="0.00" HC="0.02" NOx="0.70" PMx="0.01" fuel="1.00" electricity="0.00" noise="64.57" route="route0" type="Car" waiting="0.00" lane="-50316829#8_0" pos="12.04" speed="13.89" angle="284.71" x="2407.27" y="1633.35"/>
    </timestep>
    <timestep time="7.00">
        <vehicle id="f4.0" eclass="HBEFA3/PC_G_EU4" CO2="2337.01" CO="0.00" HC="0.02" NOx="0.70" PMx="0.01" fuel="1.00" electricity="0.00" noise="64.57" route="route0" type="Car" waiting="0.00" lane="-50316829#8_0" pos="102.33" speed="13.89" angle="296.15" x="2322.59" y="1663.06"/>
        <vehicle id="f4.1" eclass="HBEFA3/PC_G_EU4" CO2="2337.01" CO="0.00" HC="0.02" NOx="0.70" PMx="0.01" fuel="1.00" electricity="0.00" noise="64.57" route="route0" type="Car" waiting="0.00" lane="-50316829#8_0" pos="81.50" speed="13.89" angle="296.15" x="2341.27" y="1653.89"/>
        <vehicle id="f4.2" eclass="HBEFA3/PC_G_EU4" CO2="2337.01" CO="0.00" HC="0.02" NOx="0.70" PMx="0.01" fuel="1.00" electricity="0.00" noise="64.57" route="route0" type="Car" waiting="0.00" lane="-50316829#8_0" pos="60.66" speed="13.89" angle="284.71" x="2360.31" y="1645.68"/>
        <vehicle id="f4.3" eclass="HBEFA3/PC_G_EU4" CO2="2337.01" CO="0.00" HC="0.02" NOx="0.70" PMx="0.01" fuel="1.00" electricity="0.00" noise="64.57" route="route0" type="Car" waiting="0.00" lane="-50316829#8_0" pos="39.83" speed="13.89" angle="284.71" x="2380.43" y="1640.40"/>
        <vehicle id="f4.4" eclass="HBEFA3/PC_G_EU4" CO2="2337.01" CO="0.00" HC="0.02" NOx="0.70" PMx="0.01" fuel="1.00" electricity="0.00" noise="64.57" route="route0" type="Car" waiting="0.00" lane="-50316829#8_0" pos="18.99" speed="13.89" angle="284.71" x="2400.56" y="1635.12"/>
    </timestep>
    <timestep time="7.50">
        <vehicle id="f4.0" eclass="HBEFA3/PC_G_EU4" CO2="2337.01" CO="0.00" HC="0.02" NOx="0.70" PMx="0.01" fuel="1.00" electricity="0.00" noise="64.57" route="route0" type="Car" waiting="0.00" lane="-50316829#8_0" pos="109.27" speed="13.89" angle="296.15" x="2316.36" y="1666.12"/>
        <vehicle id="f4.1" eclass="HBEFA3/PC_G_EU4" CO2="2337.01" CO="0.00" HC="0.02" NOx="0.70" PMx="0.01" fuel="1.00" electricity="0.00" noise="64.57" route="route0" type="Car" waiting="0.00" lane="-50316829#8_0" pos="88.44" speed="13.89" angle="296.15" x="2335.04" y="1656.95"/>
        <vehicle id="f4.2" eclass="HBEFA3/PC_G_EU4" CO2="2337.01" CO="0.00" HC="0.02" NOx="0.70" PMx="0.01" fuel="1.00" electricity="0.00" noise="64.57" route="route0" type="Car" waiting="0.00" lane="-50316829#8_0" pos="67.61" speed="13.89" angle="288.79" x="2353.72" y="1647.78"/>
        <vehicle id="f4.3" eclass="HBEFA3/PC_G_EU4" CO2="2337.01" CO="0.00" HC="0.02" NOx="0.70" PMx="0.01" fuel="1.00" electricity="0.00" noise="64.57" route="route0" type="Car" waiting="0.00" lane="-50316829#8_0" pos="46.77" speed="13.89" angle="284.71" x="2373.73" y="1642.16"/>
        <vehicle id="f4.4" eclass="HBEFA3/PC_G_EU4" CO2="2337.01" CO="0.00" HC="0.02" NOx="0.70" PMx="0.01" fuel="1.00" electricity="0.00" noise="64.57" route="route0" type="Car" waiting="0.00" lane="-50316829#8_0" pos="25.94" speed="13.89" angle="284.71" x="2393.85" y="1636.88"/>
        <vehicle id="f4.5" eclass="HBEFA3/PC_G_EU4" CO2="2337.01" CO="0.00" HC="0.02" NOx="0.70" PMx="0.01" fuel="1.00" electricity="0.00" noise="64.57" route="route0" type="Car" waiting="0.00" lane="-50316829#8_0" pos="5.10" speed="13.89" angle="284.71" x="2413.98" y="1631.59"/>
    </timestep>
    <timestep time="8.00">
        <vehicle id="f4.0" eclass="HBEFA3/PC_G_EU4" CO2="2337.01" CO="0.00" HC="0.02" NOx="0.70" PMx="0.01" fuel="1.00" electricity="0.00" noise="64.57" route="route0" type="Car" waiting="0.00" lane="-50316829#8_0" pos="116.22" speed="13.89" angle="296.15" x="2310.13" y="1669.18"/>
        <vehicle id="f4.1" eclass="HBEFA3/PC_G_EU4" CO2="2337.01" CO="0.00" HC="0.02" NOx="0.70" PMx="0.01" fuel="1.00" electricity="0.00" noise="64.57" route="route0" type="Car" waiting="0.00" lane="-50316829#8_0" pos="95.38" speed="13.89" angle="296.15" x="2328.81" y="1660.00"/>
        <vehicle id="f4.2" eclass="HBEFA3/PC_G_EU4" CO2="2337.01" CO="0.00" HC="0.02" NOx="0.70" PMx="0.01" fuel="1.00" electricity="0.00" noise="64.57" route="route0" type="Car" waiting="0.00" lane="-50316829#8_0" pos="74.55" speed="13.89" angle="296.15" x="2347.49" y="1650.83"/>
        <vehicle id="f4.3" eclass="HBEFA3/PC_G_EU4" CO2="2337.01" CO="0.00" HC="0.02" NOx="0.70" PMx="0.01" fuel="1.00" electricity="0.00" noise="64.57" route="route0" type="Car" waiting="0.00" lane="-50316829#8_0" pos="53.72" speed="13.89" angle="284.71" x="2367.02" y="1643.92"/>
        <vehicle id="f4.4" eclass="HBEFA3/PC_G_EU4" CO2="2337.01" CO="0.00" HC="0.02" NOx="0.70" PMx="0.01" fuel="1.00" electricity="0.00" noise="64.57" route="route0" type="Car" waiting="0.00" lane="-50316829#8_0" pos="32.88" speed="13.89" angle="284.71" x="2387.14" y="1638.64"/>
        <vehicle id="f4.5" eclass="HBEFA3/PC_G_EU4" CO2="2337.01" CO="0.00" HC="0.02" NOx="0.70" PMx="0.01" fuel="1.00" electricity="0.00" noise="64.57" route="route0" type="Car" waiting="0.00" lane="-50316829#8_0" pos="12.04" speed="13.89" angle="284.71" x="2407.27" y="1633.35"/>
    </timestep>
    <timestep time="8.50">
        <vehicle id="f4.0" eclass="HBEFA3/PC_G_EU4" CO2="2337.01" CO="0.00" HC="0.02" NOx="0.70" PMx="0.01" fuel="1.00" electricity="0.00" noise="64.57" route="route0" type="Car" waiting="0.00" lane="-50316829#8_0" pos="123.16" speed="13.89" angle="296.15" x="2303.91" y="1672.23"/>
        <vehicle id="f4.1" eclass="HBEFA3/PC_G_EU4" CO2="2337.01" CO="0.00" HC="0.02" NOx="0.70" PMx="0.01" fuel="1.00" electricity="0.00" noise="64.57" route="route0" type="Car" waiting="0.00" lane="-50316829#8_0" pos="102.33" speed="13.89" angle="296.15" x="2322.59" y="1663.06"/>
        <vehicle id="f4.2" eclass="HBEFA3/PC_G_EU4" CO2="2337.01" CO="0.00" HC="0.02" NOx="0.70" PMx="0.01" fuel="1.00" electricity="0.00" noise="64.57" route="route0" type="Car" waiting="0.00" lane="-50316829#8_0" pos="81.50" speed="13.89" angle="296.15" x="2341.27" y="1653.89"/>
        <vehicle id="f4.3" eclass="HBEFA3/PC_G_EU4" CO2="2337.01" CO="0.00" HC="0.02" NOx="0.70" PMx="0.01" fuel="1.00" electricity="0.00" noise="64.57" route="route0" type="Car" waiting="0.00" lane="-50316829#8_0" pos="60.66" speed="13.89" angle="284.71" x="2360.31" y="1645.68"/>
        <vehicle id="f4.4" eclass="HBEFA3/PC_G_EU4" CO2="2337.01" CO="0.00" HC="0.02" NOx="0.70" PMx="0.01" fuel="1.00" electricity="0.00" noise="64.57" route="route0" type="Car" waiting="0.00" lane="-50316829#8_0" pos="39.83" speed="13.89" angle="284.71" x="2380.43" y="1640.40"/>
        <vehicle id="f4.5" eclass="HBEFA3/PC_G_EU4" CO2="2337.01" CO="0.00" HC="0.02" NOx="0.70" PMx="0.01" fuel="1.00" electricity="0.00" noise="64.57" route="route0" type="Car" waiting="0.00" lane="-50316829#8_0" pos="18.99" speed="13.89" angle="284.71" x="2400.56" y="1635.12"/>
    </timestep>
    <timestep time="9.00">
        <vehicle id="f4.0" eclass="HBEFA3/PC_G_EU4" CO2="2337.01" CO="0.00" HC="0.02" NOx="0.70" PMx="0.01" fuel="1.00" electricity="0.00" noise="64.57" route="route0" type="Car" waiting="0.00" lane="-50316829#8_0" pos="130.11" speed="13.89" angle="296.15" x="2297.68" y="1675.29"/>
        <vehicle id="f4.1" eclass="HBEFA3/PC_G_EU4" CO2="2337.01" CO="0.00" HC="0.02" NOx="0.70" PMx="0.01" fuel="1.00" electricity="0.00" noise="64.57" route="route0" type="Car" waiting="0.00" lane="-50316829#8_0" pos="109.27" speed="13.89" angle="296.15" x="2316.36" y="1666.12"/>
        <vehicle id="f4.2" eclass="HBEFA3/PC_G_EU4" CO2="2337.01" CO="0.00" HC="0.02" NOx="0.70" PMx="0.01" fuel="1.00" electricity="0.00" noise="64.57" route="route0" type="Car" waiting="0.00" lane="-50316829#8_0" pos="88.44" speed="13.89" angle="296.15" x="2335.04" y="1656.95"/>
        <vehicle id="f4.3" eclass="HBEFA3/PC_G_EU4" CO2="2337.01" CO="0.00" HC="0.02" NOx="0.70" PMx="0.01" fuel="1.00" electricity="0.00" noise="64.57" route="route0" type="Car" waiting="0.00" lane="-50316829#8_0" pos="67.61" speed="13.89" angle="288.79" x="2353.72" y="1647.78"/>
        <vehicle id="f4.4" eclass="HBEFA3/PC_G_EU4" CO2="2337.01" CO="0.00" HC="0.02" NOx="0.70" PMx="0.01" fuel="1.00" electricity="0.00" noise="64.57" route="route0" type="Car" waiting="0.00" lane="-50316829#8_0" pos="46.77" speed="13.89" angle="284.71" x="2373.73" y="1642.16"/>
        <vehicle id="f4.5" eclass="HBEFA3/PC_G_EU4" CO2="2337.01" CO="0.00" HC="0.02" NOx="0.70" PMx="0.01" fuel="1.00" electricity="0.00" noise="64.57" route="route0" type="Car" waiting="0.00" lane="-50316829#8_0" pos="25.94" speed="13.89" angle="284.71" x="2393.85" y="1636.88"/>
        <vehicle id="f4.6" eclass="HBEFA3/PC_G_EU4" CO2="2337.01" CO="0.00" HC="0.02" NOx="0.70" PMx="0.01" fuel="1.00" electricity="0.00" noise="64.57" route="route0" type="Car" waiting="0.00" lane="-50316829#8_0" pos="5.10" speed="13.89" angle="284.71" x="2413.98" y="1631.59"/>
    </timestep>
    <timestep time="9.50">
        <vehicle id="f4.0" eclass="HBEFA3/PC_G_EU4" CO2="2337.01" CO="0.00" HC="0.02" NOx="0.70" PMx="0.01" fuel="1.00" electricity="0.00" noise="64.57" route="route0" type="Car" waiting="0.00" lane="-50316829#8_0" pos="137.05" speed="13.89" angle="296.15" x="2291.45" y="1678.35"/>
        <vehicle id="f4.1" eclass="HBEFA3/PC_G_EU4" CO2="2337.01" CO="0.00" HC="0.02" NOx="0.70" PMx="0.01" fuel="1.00" electricity="0.00" noise="64.57" route="route0" type="Car" waiting="0.00" lane="-50316829#8_0" pos="116.22" speed="13.89" angle="296.15" x="2310.13" y="1669.18"/>
        <vehicle id="f4.2" eclass="HBEFA3/PC_G_EU4" CO2="2337.01" CO="0.00" HC="0.02" NOx="0.70" PMx="0.01" fuel="1.00" electricity="0.00" noise="64.57" route="route0" type="Car" waiting="0.00" lane="-50316829#8_0" pos="95.38" speed="13.89" angle="296.15" x="2328.81" y="1660.00"/>
        <vehicle id="f4.3" eclass="HBEFA3/PC_G_EU4" CO2="2337.01" CO="0.00" HC="0.02" NOx="0.70" PMx="0.01" fuel="1.00" electricity="0.00" noise="64.57" route="route0" type="Car" waiting="0.00" lane="-50316829#8_0" pos="74.55" speed="13.89" angle="296.15" x="2347.49" y="1650.83"/>
        <vehicle id="f4.4" eclass="HBEFA3/PC_G_EU4" CO2="2337.01" CO="0.00" HC="0.02" NOx="0.70" PMx="0.01" fuel="1.00" electricity="0.00" noise="64.57" route="route0" type="Car" waiting="0.00" lane="-50316829#8_0" pos="53.72" speed="13.89" angle="284.71" x="2367.02" y="1643.92"/>
        <vehicle id="f4.5" eclass="HBEFA3/PC_G_EU4" CO2="2337.01" CO="0.00" HC="0.02" NOx="0.70" PMx="0.01" fuel="1.00" electricity="0.00" noise="64.57" route="route0" type="Car" waiting="0.00" lane="-50316829#8_0" pos="32.88" speed="13.89" angle="284.71" x="2387.14" y="1638.64"/>
        <vehicle id="f4.6" eclass="HBEFA3/PC_G_EU4" CO2="2337.01" CO="0.00" HC="0.02" NOx="0.70" PMx="0.01" fuel="1.00" electricity="0.00" noise="64.57" route="route0" type="Car" waiting="0.00" lane="-50316829#8_0" pos="12.04" speed="13.89" angle="284.71" x="2407.27" y="1633.35"/>
    </timestep>
    <timestep time="10.00">
        <vehicle id="f4.0" eclass="HBEFA3/PC_G_EU4" CO2="2337.01" CO="0.00" HC="0.02" NOx="0.70" PMx="0.01" fuel="1.00" electricity="0.00" noise="64.57" route="route0" type="Car" waiting="0.00" lane="-50316829#8_0" pos="144.00" speed="13.89" angle="296.15" x="2285.23" y="1681.41"/>
        <vehicle id="f4.1" eclass="HBEFA3/PC_G_EU4" CO2="2337.01" CO="0.00" HC="0.02" NOx="0.70" PMx="0.01" fuel="1.00" electricity="0.00" noise="64.57" route="route0" type="Car" waiting="0.00" lane="-50316829#8_0" pos="123.16" speed="13.89" angle="296.15" x="2303.91" y="1672.23"/>
        <vehicle id="f4.2" eclass="HBEFA3/PC_G_EU4" CO2="2337.01" CO="0.00" HC="0.02" NOx="0.70" PMx="0.01" fuel="1.00" electricity="0.00" noise="64.57" route="route0" type="Car" waiting="0.00" lane="-50316829#8_0" pos="102.33" speed="13.89" angle="296.15" x="2322.59" y="1663.06"/>
        <vehicle id="f4.3" eclass="HBEFA3/PC_G_EU4" CO2="2337.01" CO="0.00" HC="0.02" NOx="0.70" PMx="0.01" fuel="1.00" electricity="0.00" noise="64.57" route="route0" type="Car" waiting="0.00" lane="-50316829#8_0" pos="81.50" speed="13.89" angle="296.15" x="2341.27" y="1653.89"/>
        <vehicle id="f4.4" eclass="HBEFA3/PC_G_EU4" CO2="2337.01" CO="0.00" HC="0.02" NOx="0.70" PMx="0.01" fuel="1.00" electricity="0.00" noise="64.57" route="route0" type="Car" waiting="0.00" lane="-50316829#8_0" pos="60.66" speed="13.89" angle="284.71" x="2360.31" y="1645.68"/>
        <vehicle id="f4.5" eclass="HBEFA3/PC_G_EU4" CO2="2337.01" CO="0.00" HC="0.02" NOx="0.70" PMx="0.01" fuel="1.00" electricity="0.00" noise="64.57" route="route0" type="Car" waiting="0.00" lane="-50316829#8_0" pos="39.83" speed="13.89" angle="284.71" x="2380.43" y="1640.40"/>
        <vehicle id="f4.6" eclass="HBEFA3/PC_G_EU4" CO2="2337.01" CO="0.00" HC="0.02" NOx="0.70" PMx="0.01" fuel="1.00" electricity="0.00" noise="64.57" route="route0" type="Car" waiting="0.00" lane="-50316829#8_0" pos="18.99" speed="13.89" angle="284.71" x="2400.56" y="1635.12"/>
    </timestep>
    <timestep time="10.50">
        <vehicle id="f4.0" eclass="HBEFA3/PC_G_EU4" CO2="2337.01" CO="0.00" HC="0.02" NOx="0.70" PMx="0.01" fuel="1.00" electricity="0.00" noise="64.57" route="route0" type="Car" waiting="0.00" lane="-50316829#8_0" pos="150.94" speed="13.89" angle="296.15" x="2279.00" y="1684.46"/>
        <vehicle id="f4.1" eclass="HBEFA3/PC_G_EU4" CO2="2337.01" CO="0.00" HC="0.02" NOx="0.70" PMx="0.01" fuel="1.00" electricity="0.00" noise="64.57" route="route0" type="Car" waiting="0.00" lane="-50316829#8_0" pos="130.11" speed="13.89" angle="296.15" x="2297.68" y="1675.29"/>
        <vehicle id="f4.2" eclass="HBEFA3/PC_G_EU4" CO2="2337.01" CO="0.00" HC="0.02" NOx="0.70" PMx="0.01" fuel="1.00" electricity="0.00" noise="64.57" route="route0" type="Car" waiting="0.00" lane="-50316829#8_0" pos="109.27" speed="13.89" angle="296.15" x="2316.36" y="1666.12"/>
        <vehicle id="f4.3" eclass="HBEFA3/PC_G_EU4" CO2="2337.01" CO="0.00" HC="0.02" NOx="0.70" PMx="0.01" fuel="1.00" electricity="0.00" noise="64.57" route="route0" type="Car" waiting="0.00" lane="-50316829#8_0" pos="88.44" speed="13.89" angle="296.15" x="2335.04" y="1656.95"/>
        <vehicle id="f4.4" eclass="HBEFA3/PC_G_EU4" CO2="2337.01" CO="0.00" HC="0.02" NOx="0.70" PMx="0.01" fuel="1.00" electricity="0.00" noise="64.57" route="route0" type="Car" waiting="0.00" lane="-50316829#8_0" pos="67.61" speed="13.89" angle="288.79" x="2353.72" y="1647.78"/>
        <vehicle id="f4.5" eclass="HBEFA3/PC_G_EU4" CO2="2337.01" CO="0.00" HC="0.02" NOx="0.70" PMx="0.01" fuel="1.00" electricity="0.00" noise="64.57" route="route0" type="Car" waiting="0.00" lane="-50316829#8_0" pos="46.77" speed="13.89" angle="284.71" x="2373.73" y="1642.16"/>
        <vehicle id="f4.6" eclass="HBEFA3/PC_G_EU4" CO2="2337.01" CO="0.00" HC="0.02" NOx="0.70" PMx="0.01" fuel="1.00" electricity="0.00" noise="64.57" route="route0" type="Car" waiting="0.00" lane="-50316829#8_0" pos="25.94" speed="13.89" angle="284.71" x="2393.85" y="1636.88"/>
        <vehicle id="f4.7" eclass="HBEFA3/PC_G_EU4" CO2="2337.01" CO="0.00" HC="0.02" NOx="0.70" PMx="0.01" fuel="1.00" electricity="0.00" noise="64.57" route="route0" type="Car" waiting="0.00" lane="-50316829#8_0" pos="5.10" speed="13.89" angle="284.71" x="2413.98" y="1631.59"/>
    </timestep>
    <timestep time="11.00">
        <vehicle id="f4.0" eclass="HBEFA3/PC_G_EU4" CO2="2337.01" CO="0.00" HC="0.02" NOx="0.70" PMx="0.01" fuel="1.00" electricity="0.00" noise="64.57" route="route0" type="Car" waiting="0.00" lane="-50316829#8_0" pos="157.89" speed="13.89" angle="296.15" x="2272.77" y="1687.52"/>
        <vehicle id="f4.1" eclass="HBEFA3/PC_G_EU4" CO2="2337.01" CO="0.00" HC="0.02" NOx="0.70" PMx="0.01" fuel="1.00" electricity="0.00" noise="64.57" route="route0" type="Car" waiting="0.00" lane="-50316829#8_0" pos="137.05" speed="13.89" angle="296.15" x="2291.45" y="1678.35"/>
        <vehicle id="f4.2" eclass="HBEFA3/PC_G_EU4" CO2="2337.01" CO="0.00" HC="0.02" NOx="0.70" PMx="0.01" fuel="1.00" electricity="0.00" noise="64.57" route="route0" type="Car" waiting="0.00" lane="-50316829#8_0" pos="116.22" speed="13.89" angle="296.15" x="2310.13" y="1669.18"/>
        <vehicle id="f4.3" eclass="HBEFA3/PC_G_EU4" CO2="2337.01" CO="0.00" HC="0.02" NOx="0.70" PMx="0.01" fuel="1.00" electricity="0.00" noise="64.57" route="route0" type="Car" waiting="0.00" lane="-50316829#8_0" pos="95.38" speed="13.89" angle="296.15" x="2328.81" y="1660.00"/>
        <vehicle id="f4.4" eclass="HBEFA3/PC_G_EU4" CO2="2337.01" CO="0.00" HC="0.02" NOx="0.70" PMx="0.01" fuel="1.00" electricity="0.00" noise="64.57" route="route0" type="Car" waiting="0.00" lane="-50316829#8_0" pos="74.55" speed="13.89" angle="296.15" x="2347.49" y="1650.83"/>
        <vehicle id="f4.5" eclass="HBEFA3/PC_G_EU4" CO2="2337.01" CO="0.00" HC="0.02" NOx="0.70" PMx="0.01" fuel="1.00" electricity="0.00" noise="64.57" route="route0" type="Car" waiting="0.00" lane="-50316829#8_0" pos="53.72" speed="13.89" angle="284.71" x="2367.02" y="1643.92"/>